       N       E                     dE             d eps       ncg     rms          rms(c)
DAV:   1     0.335900896918E+05    0.33590E+05   -0.22757E+05 30360   0.618E+03
DAV:   2     0.136725752960E+05   -0.19918E+05   -0.17917E+05 32576   0.242E+03
DAV:   3     0.435343582955E+04   -0.93191E+04   -0.87447E+04 37824   0.131E+03
DAV:   4     0.996359489201E+03   -0.33571E+04   -0.31139E+04 48144   0.111E+03
DAV:   5    -0.111822941283E+02   -0.10075E+04   -0.87694E+03 50000   0.754E+02    0.792E+02
DAV:   6    -0.281618354182E+03   -0.27044E+03   -0.31670E+03 50904   0.487E+02    0.396E+02
DAV:   7    -0.386330488580E+03   -0.10471E+03   -0.80387E+02 45224   0.485E+02    0.174E+02
DAV:   8    -0.517714181632E+03   -0.13138E+03   -0.62180E+02 32240   0.740E+02    0.161E+02
DAV:   9    -0.659970390481E+03   -0.14226E+03   -0.51513E+02 41720   0.542E+02    0.172E+02
DAV:  10    -0.564070067609E+03    0.95900E+02   -0.30181E+02 49416   0.349E+02    0.173E+02
DAV:  11    -0.478741463758E+03    0.85329E+02   -0.13278E+02 50288   0.212E+02    0.129E+02
DAV:  12    -0.441225478872E+03    0.37516E+02   -0.95537E+01 47316   0.224E+02    0.924E+01
DAV:  13    -0.464654493890E+03   -0.23429E+02   -0.94607E+01 39008   0.287E+02    0.156E+02
DAV:  14    -0.428417411233E+03    0.36237E+02   -0.12413E+02 45804   0.223E+02    0.144E+02
DAV:  15    -0.395536624647E+03    0.32881E+02   -0.81226E+01 48608   0.121E+02    0.920E+01
DAV:  16    -0.390291118266E+03    0.52455E+01   -0.41139E+01 46632   0.110E+02    0.861E+01
DAV:  17    -0.398173097795E+03   -0.78820E+01   -0.41784E+01 41520   0.130E+02    0.104E+02
DAV:  18    -0.411468847158E+03   -0.13296E+02   -0.28156E+01 38008   0.146E+02    0.106E+02
DAV:  19    -0.391252265944E+03    0.20217E+02   -0.13768E+01 45064   0.931E+01    0.649E+01
DAV:  20    -0.399542766522E+03   -0.82905E+01   -0.39433E+01 36168   0.149E+02    0.895E+01
DAV:  21    -0.395116279879E+03    0.44265E+01   -0.22685E+01 39200   0.114E+02    0.709E+01
DAV:  22    -0.388073534291E+03    0.70427E+01   -0.19475E+01 39264   0.917E+01    0.547E+01
DAV:  23    -0.383300077704E+03    0.47735E+01   -0.62158E+00 40216   0.729E+01    0.322E+01
DAV:  24    -0.383107329505E+03    0.19275E+00   -0.43255E+00 39416   0.641E+01    0.381E+01
DAV:  25    -0.382730076451E+03    0.37725E+00   -0.36421E+00 46656   0.355E+01    0.226E+01
DAV:  26    -0.383496395926E+03   -0.76632E+00   -0.15561E+00 37280   0.364E+01    0.244E+01
DAV:  27    -0.383393553512E+03    0.10284E+00   -0.70780E-01 40440   0.268E+01    0.209E+01
DAV:  28    -0.383490025465E+03   -0.96472E-01   -0.11212E+00 48304   0.122E+01    0.210E+01
DAV:  29    -0.383530864101E+03   -0.40839E-01   -0.87712E-02 44056   0.557E+00    0.213E+01
DAV:  30    -0.383502951505E+03    0.27913E-01   -0.12178E-01 41824   0.101E+01    0.211E+01
DAV:  31    -0.383969242364E+03   -0.46629E+00   -0.69302E-01 38544   0.236E+01    0.217E+01
DAV:  32    -0.384719447453E+03   -0.75021E+00   -0.19018E+00 39232   0.356E+01    0.232E+01
DAV:  33    -0.385983507609E+03   -0.12641E+01   -0.24279E+00 41936   0.415E+01    0.366E+01
DAV:  34    -0.385332763960E+03    0.65074E+00   -0.11050E+00 49184   0.240E+01    0.320E+01
DAV:  35    -0.385359555646E+03   -0.26792E-01   -0.40172E-01 39888   0.218E+01    0.287E+01
DAV:  36    -0.385154242113E+03    0.20531E+00   -0.19507E+00 41440   0.249E+01    0.216E+01
DAV:  37    -0.385141129899E+03    0.13112E-01   -0.67724E-01 42424   0.243E+01    0.198E+01
DAV:  38    -0.384958290171E+03    0.18284E+00   -0.89332E-01 44936   0.174E+01    0.197E+01
DAV:  39    -0.384775918581E+03    0.18237E+00   -0.20434E-01 48888   0.900E+00    0.188E+01
DAV:  40    -0.384482703747E+03    0.29321E+00   -0.14982E-01 40944   0.102E+01    0.192E+01
DAV:  41    -0.383519864709E+03    0.96284E+00   -0.40496E-01 41104   0.180E+01    0.218E+01
DAV:  42    -0.382778430229E+03    0.74143E+00   -0.55443E-01 49920   0.142E+01    0.240E+01
DAV:  43    -0.382913210622E+03   -0.13478E+00   -0.83008E-02 50432   0.429E+00    0.236E+01
DAV:  44    -0.382519556596E+03    0.39365E+00   -0.36581E-02 42592   0.469E+00    0.249E+01
DAV:  45    -0.382344702383E+03    0.17485E+00   -0.24246E-02 51272   0.230E+00    0.254E+01
DAV:  46    -0.382341894156E+03    0.28082E-02   -0.45438E-03 41296   0.877E-01    0.253E+01
DAV:  47    -0.382822007253E+03   -0.48011E+00   -0.13815E-01 37392   0.626E+00    0.235E+01
DAV:  48    -0.382715401622E+03    0.10661E+00   -0.64029E-02 39008   0.775E+00    0.238E+01
DAV:  49    -0.382700149431E+03    0.15252E-01   -0.40159E-02 49288   0.370E+00    0.239E+01
DAV:  50    -0.382602444665E+03    0.97705E-01   -0.10186E-02 49312   0.255E+00    0.242E+01
DAV:  51    -0.383561595111E+03   -0.95915E+00   -0.74592E-01 39944   0.213E+01    0.209E+01
DAV:  52    -0.384595820674E+03   -0.10342E+01   -0.12896E+00 47384   0.230E+01    0.184E+01
DAV:  53    -0.384816549908E+03   -0.22073E+00   -0.24765E-01 50568   0.630E+00    0.187E+01
DAV:  54    -0.384683844512E+03    0.13271E+00   -0.36854E-02 44624   0.461E+00    0.197E+01
DAV:  55    -0.384929481694E+03   -0.24564E+00   -0.24789E-02 46552   0.467E+00    0.182E+01
DAV:  56    -0.386214883175E+03   -0.12854E+01   -0.11362E+00 41896   0.438E+01    0.968E+00
DAV:  57    -0.386208641292E+03    0.62419E-02   -0.92792E-01 50000   0.167E+01    0.930E+00
DAV:  58    -0.386115593766E+03    0.93048E-01   -0.22320E-01 50704   0.859E+00    0.913E+00
DAV:  59    -0.386136655551E+03   -0.21062E-01   -0.16864E-01 47872   0.718E+00    0.938E+00
DAV:  60    -0.386225365517E+03   -0.88710E-01   -0.83865E-02 46320   0.468E+00    0.115E+01
DAV:  61    -0.386228831268E+03   -0.34658E-02   -0.16201E-01 40320   0.169E+01    0.130E+01
DAV:  62    -0.386244037824E+03   -0.15207E-01   -0.85850E-02 46968   0.980E+00    0.125E+01
DAV:  63    -0.386262697195E+03   -0.18659E-01   -0.30016E-02 49152   0.367E+00    0.125E+01
DAV:  64    -0.386255080183E+03    0.76170E-02   -0.66186E-03 39168   0.179E+00    0.126E+01
DAV:  65    -0.386240800738E+03    0.14279E-01   -0.34320E-03 42512   0.177E+00    0.127E+01
DAV:  66    -0.386108560567E+03    0.13224E+00   -0.19669E-01 37216   0.211E+01    0.126E+01
DAV:  67    -0.386162288452E+03   -0.53728E-01   -0.10912E-01 41384   0.125E+01    0.118E+01
DAV:  68    -0.386147079837E+03    0.15209E-01   -0.24366E-02 45480   0.459E+00    0.113E+01
DAV:  69    -0.386089668030E+03    0.57412E-01   -0.26044E-02 38496   0.585E+00    0.104E+01
DAV:  70    -0.385983494016E+03    0.10617E+00   -0.21853E-01 40232   0.935E+00    0.674E+00
DAV:  71    -0.386022328699E+03   -0.38835E-01   -0.11721E-01 46504   0.858E+00    0.621E+00
DAV:  72    -0.386068692123E+03   -0.46363E-01   -0.56928E-02 39920   0.890E+00    0.599E+00
DAV:  73    -0.386181136772E+03   -0.11244E+00   -0.82774E-02 48912   0.644E+00    0.825E+00
DAV:  74    -0.386234440485E+03   -0.53304E-01   -0.12734E-01 43336   0.644E+00    0.761E+00
DAV:  75    -0.386324684267E+03   -0.90244E-01   -0.45978E-02 48952   0.421E+00    0.779E+00
DAV:  76    -0.386307041538E+03    0.17643E-01   -0.67580E-02 37056   0.126E+01    0.863E+00
DAV:  77    -0.386221122932E+03    0.85919E-01   -0.40842E-02 42096   0.785E+00    0.874E+00
DAV:  78    -0.386214154832E+03    0.69681E-02   -0.13035E-02 50136   0.124E+00    0.864E+00
DAV:  79    -0.386187462382E+03    0.26692E-01   -0.85703E-03 40392   0.395E+00    0.864E+00
DAV:  80    -0.386145738090E+03    0.41724E-01   -0.21856E-02 45664   0.442E+00    0.869E+00
DAV:  81    -0.386096825786E+03    0.48912E-01   -0.12352E-01 37240   0.139E+01    0.902E+00
DAV:  82    -0.386063902648E+03    0.32923E-01   -0.49643E-02 39720   0.966E+00    0.824E+00
DAV:  83    -0.386016824746E+03    0.47078E-01   -0.40226E-02 48800   0.503E+00    0.508E+00
DAV:  84    -0.386020861279E+03   -0.40365E-02   -0.27279E-02 44360   0.382E+00    0.449E+00
DAV:  85    -0.386020993929E+03   -0.13265E-03   -0.11532E-02 47496   0.238E+00    0.437E+00
DAV:  86    -0.386006977563E+03    0.14016E-01   -0.74911E-03 41864   0.308E+00    0.437E+00
DAV:  87    -0.385993789394E+03    0.13188E-01   -0.14454E-02 48840   0.210E+00    0.416E+00
DAV:  88    -0.385997308929E+03   -0.35195E-02   -0.48655E-03 45160   0.788E-01    0.401E+00
DAV:  89    -0.385998394069E+03   -0.10851E-02   -0.11027E-03 43208   0.368E-01    0.395E+00
DAV:  90    -0.385999915471E+03   -0.15214E-02   -0.16247E-04 30928   0.279E-01    0.391E+00
DAV:  91    -0.386015622128E+03   -0.15707E-01   -0.18405E-02 39200   0.401E+00    0.481E+00
DAV:  92    -0.386009451716E+03    0.61704E-02   -0.59412E-03 46560   0.211E+00    0.462E+00
DAV:  93    -0.386005050606E+03    0.44011E-02   -0.14843E-03 48624   0.701E-01    0.453E+00
DAV:  94    -0.385996861517E+03    0.81891E-02   -0.11122E-03 37832   0.102E+00    0.441E+00
DAV:  95    -0.385992136088E+03    0.47254E-02   -0.43296E-03 45936   0.100E+00    0.460E+00
DAV:  96    -0.385975087122E+03    0.17049E-01   -0.85427E-02 39352   0.906E+00    0.491E+00
DAV:  97    -0.385994234552E+03   -0.19147E-01   -0.32878E-02 46880   0.520E+00    0.437E+00
DAV:  98    -0.385992945083E+03    0.12895E-02   -0.17623E-02 47904   0.252E+00    0.373E+00
DAV:  99    -0.385991900591E+03    0.10445E-02   -0.11400E-02 44328   0.208E+00    0.327E+00
DAV: 100    -0.385993560297E+03   -0.16597E-02   -0.73036E-03 49160   0.110E+00    0.265E+00
DAV: 101    -0.386048531784E+03   -0.54971E-01   -0.11652E-01 40712   0.568E+00    0.246E+00
DAV: 102    -0.386075535535E+03   -0.27004E-01   -0.25573E-02 47072   0.378E+00    0.349E+00
DAV: 103    -0.386082914066E+03   -0.73785E-02   -0.60805E-03 45816   0.196E+00    0.392E+00
DAV: 104    -0.386089088590E+03   -0.61745E-02   -0.34790E-03 45856   0.151E+00    0.405E+00
DAV: 105    -0.386096014398E+03   -0.69258E-02   -0.36307E-03 46296   0.160E+00    0.406E+00
DAV: 106    -0.386102018504E+03   -0.60041E-02   -0.29781E-03 46920   0.151E+00    0.455E+00
DAV: 107    -0.386102063087E+03   -0.44583E-04   -0.17374E-03 47816   0.884E-01    0.589E+00
DAV: 108    -0.386109068633E+03   -0.70055E-02   -0.13707E-03 40480   0.680E-01    0.750E+00
DAV: 109    -0.386115763194E+03   -0.66946E-02   -0.30817E-03 42072   0.120E+00    0.852E+00
DAV: 110    -0.386102954721E+03    0.12808E-01   -0.21032E-03 42616   0.111E+00    0.876E+00
DAV: 111    -0.386081457267E+03    0.21497E-01   -0.29194E-03 41240   0.162E+00    0.890E+00
DAV: 112    -0.386061268133E+03    0.20189E-01   -0.19725E-03 42720   0.144E+00    0.857E+00
DAV: 113    -0.386048146295E+03    0.13122E-01   -0.19271E-03 46256   0.906E-01    0.733E+00
DAV: 114    -0.386051895928E+03   -0.37496E-02   -0.32487E-03 41304   0.860E-01    0.414E+00
DAV: 115    -0.386076643159E+03   -0.24747E-01   -0.44092E-03 36920   0.140E+00    0.384E+00
DAV: 116    -0.386079997845E+03   -0.33547E-02   -0.24835E-03 44832   0.106E+00    0.362E+00
DAV: 117    -0.386079009846E+03    0.98800E-03   -0.88329E-04 41272   0.835E-01    0.358E+00
DAV: 118    -0.386076256273E+03    0.27536E-02   -0.12493E-03 44072   0.107E+00    0.347E+00
DAV: 119    -0.386073768072E+03    0.24882E-02   -0.15123E-03 48024   0.695E-01    0.345E+00
DAV: 120    -0.386071797277E+03    0.19708E-02   -0.68828E-04 44328   0.444E-01    0.346E+00
DAV: 121    -0.386063268892E+03    0.85284E-02   -0.90503E-04 36224   0.823E-01    0.366E+00
DAV: 122    -0.386059811042E+03    0.34578E-02   -0.63236E-04 41608   0.695E-01    0.367E+00
DAV: 123    -0.386050095331E+03    0.97157E-02   -0.67010E-04 40168   0.636E-01    0.334E+00
DAV: 124    -0.386049507485E+03    0.58785E-03   -0.42713E-04 40320   0.380E-01    0.333E+00
DAV: 125    -0.386048977654E+03    0.52983E-03   -0.69529E-05 26688   0.172E-01    0.335E+00
DAV: 126    -0.386048585877E+03    0.39178E-03   -0.63162E-05 23152   0.339E-01    0.337E+00
DAV: 127    -0.386047121237E+03    0.14646E-02   -0.10630E-04 26944   0.394E-01    0.345E+00
DAV: 128    -0.386045234912E+03    0.18863E-02   -0.12695E-04 27352   0.217E-01    0.352E+00
DAV: 129    -0.386047003373E+03   -0.17685E-02   -0.47462E-05 21088   0.184E-01    0.345E+00
DAV: 130    -0.386044815894E+03    0.21875E-02   -0.70789E-05 19168   0.215E-01    0.354E+00
DAV: 131    -0.386068821912E+03   -0.24006E-01   -0.24764E-02 42080   0.364E+00    0.303E+00
DAV: 132    -0.386062175737E+03    0.66462E-02   -0.64429E-03 48216   0.938E-01    0.333E+00
DAV: 133    -0.386062731603E+03   -0.55587E-03   -0.77185E-04 40256   0.299E-01    0.335E+00
DAV: 134    -0.386064750689E+03   -0.20191E-02   -0.23573E-04 29296   0.185E-01    0.339E+00
DAV: 135    -0.386069969517E+03   -0.52188E-02   -0.71945E-04 32040   0.449E-01    0.350E+00
DAV: 136    -0.386026819765E+03    0.43150E-01   -0.45099E-02 39752   0.315E+00    0.341E+00
DAV: 137    -0.386065978526E+03   -0.39159E-01   -0.69254E-03 43128   0.269E+00    0.467E+00
DAV: 138    -0.386066614036E+03   -0.63551E-03   -0.45081E-03 48304   0.138E+00    0.485E+00
DAV: 139    -0.386075588126E+03   -0.89741E-02   -0.27598E-03 47344   0.933E-01    0.491E+00
DAV: 140    -0.386112122294E+03   -0.36534E-01   -0.49354E-03 46320   0.132E+00    0.767E+00
DAV: 141    -0.386147073542E+03   -0.34951E-01   -0.14141E-02 43520   0.257E+00    0.744E+00
DAV: 142    -0.386149093081E+03   -0.20195E-02   -0.32053E-03 46352   0.117E+00    0.742E+00
DAV: 143    -0.386146727119E+03    0.23660E-02   -0.14968E-03 44896   0.734E-01    0.736E+00
DAV: 144    -0.386147077592E+03   -0.35047E-03   -0.41832E-04 40936   0.248E-01    0.734E+00
DAV: 145    -0.386140023809E+03    0.70538E-02   -0.13252E-03 35760   0.393E-01    0.735E+00
DAV: 146    -0.386143124444E+03   -0.31006E-02   -0.49297E-03 45120   0.839E-01    0.733E+00
DAV: 147    -0.386158305429E+03   -0.15181E-01   -0.67245E-03 46216   0.857E-01    0.715E+00
DAV: 148    -0.386159485363E+03   -0.11799E-02   -0.12894E-03 44592   0.300E-01    0.713E+00
DAV: 149    -0.386159989037E+03   -0.50367E-03   -0.11424E-04 25888   0.170E-01    0.713E+00
DAV: 150    -0.386152133349E+03    0.78557E-02   -0.14087E-04 22288   0.238E-01    0.719E+00
DAV: 151    -0.386128340652E+03    0.23793E-01   -0.58417E-03 40480   0.100E+00    0.727E+00
DAV: 152    -0.386130222200E+03   -0.18815E-02   -0.78637E-04 41408   0.450E-01    0.724E+00
DAV: 153    -0.386126674350E+03    0.35478E-02   -0.87059E-04 34056   0.384E-01    0.726E+00
DAV: 154    -0.386129387174E+03   -0.27128E-02   -0.21276E-04 27944   0.215E-01    0.723E+00
DAV: 155    -0.386130941362E+03   -0.15542E-02   -0.60188E-05 23624   0.122E-01    0.723E+00
DAV: 156    -0.386235135578E+03   -0.10419E+00   -0.59177E-02 39960   0.350E+00    0.651E+00
DAV: 157    -0.386307254838E+03   -0.72119E-01   -0.49494E-02 49184   0.195E+00    0.621E+00
DAV: 158    -0.386187474344E+03    0.11978E+00   -0.19841E-02 40912   0.306E+00    0.728E+00
DAV: 159    -0.386230397817E+03   -0.42923E-01   -0.52185E-03 43560   0.117E+00    0.684E+00
DAV: 160    -0.386296392527E+03   -0.65995E-01   -0.12926E-02 39240   0.169E+00    0.634E+00
DAV: 161    -0.386311877811E+03   -0.15485E-01   -0.67892E-03 47656   0.133E+00    0.702E+00
DAV: 162    -0.386347409230E+03   -0.35531E-01   -0.29852E-03 41544   0.131E+00    0.713E+00
DAV: 163    -0.386202742963E+03    0.14467E+00   -0.11263E-02 40848   0.320E+00    0.731E+00
DAV: 164    -0.386216102016E+03   -0.13359E-01   -0.63925E-03 45104   0.124E+00    0.701E+00
DAV: 165    -0.386237127723E+03   -0.21026E-01   -0.21230E-03 45208   0.966E-01    0.686E+00
DAV: 166    -0.386144500481E+03    0.92627E-01   -0.35313E-02 40680   0.277E+00    0.754E+00
DAV: 167    -0.386176727912E+03   -0.32227E-01   -0.49504E-03 47520   0.134E+00    0.739E+00
DAV: 168    -0.386166742118E+03    0.99858E-02   -0.50017E-03 45160   0.842E-01    0.746E+00
DAV: 169    -0.386127431262E+03    0.39311E-01   -0.20368E-02 43096   0.145E+00    0.775E+00
DAV: 170    -0.386076171250E+03    0.51260E-01   -0.10235E-02 47368   0.169E+00    0.718E+00
DAV: 171    -0.386086276624E+03   -0.10105E-01   -0.59683E-03 44640   0.142E+00    0.709E+00
DAV: 172    -0.386055379925E+03    0.30897E-01   -0.51676E-03 43864   0.142E+00    0.604E+00
DAV: 173    -0.386064500486E+03   -0.91206E-02   -0.70764E-03 45416   0.103E+00    0.563E+00
DAV: 174    -0.386021993305E+03    0.42507E-01   -0.89281E-03 41312   0.187E+00    0.397E+00
DAV: 175    -0.386013727157E+03    0.82661E-02   -0.18350E-02 47144   0.161E+00    0.355E+00
DAV: 176    -0.385910617254E+03    0.10311E+00   -0.28016E-01 41784   0.668E+00    0.452E+00
DAV: 177    -0.385998875243E+03   -0.88258E-01   -0.37540E-02 43992   0.445E+00    0.303E+00
DAV: 178    -0.386006734780E+03   -0.78595E-02   -0.15990E-02 48584   0.174E+00    0.261E+00
DAV: 179    -0.386010960274E+03   -0.42255E-02   -0.35553E-03 46320   0.126E+00    0.248E+00
DAV: 180    -0.386016705809E+03   -0.57455E-02   -0.26357E-03 48152   0.996E-01    0.238E+00
DAV: 181    -0.386039450096E+03   -0.22744E-01   -0.22255E-02 43928   0.190E+00    0.292E+00
DAV: 182    -0.386026975227E+03    0.12475E-01   -0.67012E-03 40696   0.162E+00    0.344E+00
DAV: 183    -0.386035116477E+03   -0.81412E-02   -0.15267E-03 39240   0.705E-01    0.333E+00
DAV: 184    -0.386053906156E+03   -0.18790E-01   -0.29588E-03 40760   0.111E+00    0.317E+00
DAV: 185    -0.386053668911E+03    0.23724E-03   -0.74066E-04 41832   0.300E-01    0.331E+00
DAV: 186    -0.386057750866E+03   -0.40820E-02   -0.55519E-04 34800   0.595E-01    0.350E+00
DAV: 187    -0.386051538806E+03    0.62121E-02   -0.34101E-04 34176   0.482E-01    0.347E+00
DAV: 188    -0.386051404651E+03    0.13416E-03   -0.99961E-05 28304   0.192E-01    0.340E+00
DAV: 189    -0.386053768333E+03   -0.23637E-02   -0.16946E-04 22376   0.254E-01    0.339E+00
DAV: 190    -0.386053471272E+03    0.29706E-03   -0.37785E-04 26576   0.283E-01    0.341E+00
DAV: 191    -0.386056638472E+03   -0.31672E-02   -0.56490E-04 35376   0.991E-01    0.346E+00
DAV: 192    -0.386037813768E+03    0.18825E-01   -0.16366E-03 39504   0.123E+00    0.361E+00
DAV: 193    -0.386016806556E+03    0.21007E-01   -0.38283E-03 44480   0.117E+00    0.370E+00
DAV: 194    -0.386032464050E+03   -0.15657E-01   -0.13187E-03 38696   0.933E-01    0.331E+00
DAV: 195    -0.386062124624E+03   -0.29661E-01   -0.67701E-03 43472   0.194E+00    0.329E+00
DAV: 196    -0.386047319592E+03    0.14805E-01   -0.41476E-03 40880   0.137E+00    0.341E+00
DAV: 197    -0.386075142296E+03   -0.27823E-01   -0.49034E-03 38744   0.176E+00    0.497E+00
DAV: 198    -0.386092583839E+03   -0.17442E-01   -0.46196E-03 47344   0.975E-01    0.553E+00
DAV: 199    -0.386102007880E+03   -0.94240E-02   -0.77678E-04 42824   0.424E-01    0.680E+00
DAV: 200    -0.386079850284E+03    0.22158E-01   -0.17339E-03 35928   0.966E-01
   1 F= -.38607985E+03 E0= -.38607910E+03  d E =-.150849E-02  mag=    -5.9210
