       N       E                     dE             d eps       ncg     rms          rms(c)
DAV:   1     0.336154031874E+05    0.33615E+05   -0.22752E+05135640   0.618E+03
DAV:   2     0.136737919003E+05   -0.19942E+05   -0.17947E+05146168   0.241E+03
DAV:   3     0.434275405905E+04   -0.93310E+04   -0.87539E+04170304   0.131E+03
DAV:   4     0.989624443943E+03   -0.33531E+04   -0.31118E+04216804   0.111E+03
DAV:   5    -0.125884742929E+02   -0.10022E+04   -0.87186E+03225056   0.754E+02    0.792E+02
DAV:   6    -0.282422626050E+03   -0.26983E+03   -0.31680E+03229112   0.486E+02    0.395E+02
DAV:   7    -0.359867515399E+03   -0.77445E+02   -0.88510E+02224260   0.396E+02    0.141E+02
DAV:   8    -0.555367536449E+03   -0.19550E+03   -0.79342E+02146560   0.746E+02    0.191E+02
DAV:   9    -0.607200323079E+03   -0.51833E+02   -0.47153E+02195696   0.418E+02    0.157E+02
DAV:  10    -0.557096997028E+03    0.50103E+02   -0.34542E+02205160   0.341E+02    0.151E+02
DAV:  11    -0.495241288533E+03    0.61856E+02   -0.18090E+02216576   0.262E+02    0.131E+02
DAV:  12    -0.443058834994E+03    0.52182E+02   -0.92441E+01211024   0.237E+02    0.100E+02
DAV:  13    -0.438953611359E+03    0.41052E+01   -0.58051E+01186680   0.241E+02    0.119E+02
DAV:  14    -0.446026995780E+03   -0.70734E+01   -0.89342E+01184092   0.296E+02    0.135E+02
DAV:  15    -0.408155648955E+03    0.37871E+02   -0.83697E+01211700   0.160E+02    0.120E+02
DAV:  16    -0.403317856927E+03    0.48378E+01   -0.58725E+01200656   0.135E+02    0.983E+01
DAV:  17    -0.403698367292E+03   -0.38051E+00   -0.76559E+01169544   0.151E+02    0.891E+01
DAV:  18    -0.407865039168E+03   -0.41667E+01   -0.33724E+01158244   0.173E+02    0.983E+01
DAV:  19    -0.392695587102E+03    0.15169E+02   -0.31367E+01202644   0.957E+01    0.660E+01
DAV:  20    -0.390811786828E+03    0.18838E+01   -0.26721E+01169408   0.114E+02    0.532E+01
DAV:  21    -0.386693546605E+03    0.41182E+01   -0.15454E+01192216   0.841E+01    0.377E+01
DAV:  22    -0.384097898967E+03    0.25956E+01   -0.76824E+00189016   0.605E+01    0.291E+01
DAV:  23    -0.383417494546E+03    0.68040E+00   -0.24850E+00202184   0.365E+01    0.253E+01
DAV:  24    -0.383567276763E+03   -0.14978E+00   -0.15690E+00186088   0.259E+01    0.255E+01
DAV:  25    -0.383565375766E+03    0.19010E-02   -0.67132E-01177392   0.182E+01    0.237E+01
DAV:  26    -0.384078837431E+03   -0.51346E+00   -0.13822E+00167768   0.312E+01    0.240E+01
DAV:  27    -0.384076219004E+03    0.26184E-02   -0.20583E+00180808   0.367E+01    0.209E+01
DAV:  28    -0.384733526438E+03   -0.65731E+00   -0.34719E+00177328   0.462E+01    0.223E+01
DAV:  29    -0.384393589508E+03    0.33994E+00   -0.24553E+00183800   0.401E+01    0.168E+01
DAV:  30    -0.384344978451E+03    0.48611E-01   -0.94789E-01210704   0.225E+01    0.150E+01
DAV:  31    -0.384405327518E+03   -0.60349E-01   -0.37946E-01219376   0.115E+01    0.137E+01
DAV:  32    -0.384588123677E+03   -0.18280E+00   -0.22496E-01182632   0.101E+01    0.133E+01
DAV:  33    -0.384945298849E+03   -0.35718E+00   -0.45399E-01174536   0.194E+01    0.133E+01
DAV:  34    -0.385106009325E+03   -0.16071E+00   -0.83765E-01194632   0.205E+01    0.121E+01
DAV:  35    -0.385239387557E+03   -0.13338E+00   -0.42089E-01207680   0.145E+01    0.115E+01
DAV:  36    -0.385332873699E+03   -0.93486E-01   -0.11667E-01226272   0.611E+00    0.112E+01
DAV:  37    -0.385385522300E+03   -0.52649E-01   -0.30339E-02197432   0.413E+00    0.113E+01
DAV:  38    -0.385471605147E+03   -0.86083E-01   -0.36689E-02191392   0.561E+00    0.110E+01
DAV:  39    -0.385803005219E+03   -0.33140E+00   -0.36749E-01183008   0.162E+01    0.994E+00
DAV:  40    -0.385945957324E+03   -0.14295E+00   -0.78916E-01203600   0.248E+01    0.881E+00
DAV:  41    -0.385976443252E+03   -0.30486E-01   -0.32725E-01225336   0.131E+01    0.744E+00
DAV:  42    -0.385971990579E+03    0.44527E-02   -0.84944E-02223192   0.576E+00    0.700E+00
DAV:  43    -0.385964927734E+03    0.70628E-02   -0.17807E-02181024   0.234E+00    0.720E+00
DAV:  44    -0.386019620177E+03   -0.54692E-01   -0.60669E-02185112   0.769E+00    0.674E+00
DAV:  45    -0.385970773925E+03    0.48846E-01   -0.23943E-01219048   0.130E+01    0.775E+00
DAV:  46    -0.385957261062E+03    0.13513E-01   -0.98618E-02224856   0.741E+00    0.784E+00
DAV:  47    -0.386048742151E+03   -0.91481E-01   -0.38218E-02208664   0.632E+00    0.591E+00
DAV:  48    -0.386090767627E+03   -0.42025E-01   -0.82938E-02208760   0.101E+01    0.362E+00
DAV:  49    -0.386078645301E+03    0.12122E-01   -0.55257E-02223904   0.617E+00    0.355E+00
DAV:  50    -0.386075211232E+03    0.34341E-02   -0.20593E-02199792   0.404E+00    0.335E+00
DAV:  51    -0.386070649990E+03    0.45612E-02   -0.14230E-02213408   0.398E+00    0.287E+00
DAV:  52    -0.386082227804E+03   -0.11578E-01   -0.17625E-02210744   0.422E+00    0.182E+00
DAV:  53    -0.386083035188E+03   -0.80738E-03   -0.12191E-02223200   0.279E+00    0.153E+00
DAV:  54    -0.386082415621E+03    0.61957E-03   -0.51858E-03189288   0.206E+00    0.136E+00
DAV:  55    -0.386084431581E+03   -0.20160E-02   -0.62876E-03199960   0.237E+00    0.821E-01
DAV:  56    -0.386081661163E+03    0.27704E-02   -0.91514E-03220952   0.256E+00    0.860E-01
DAV:  57    -0.386082699476E+03   -0.10383E-02   -0.27732E-03220024   0.118E+00    0.623E-01
DAV:  58    -0.386082121506E+03    0.57797E-03   -0.82933E-04169816   0.987E-01    0.561E-01
DAV:  59    -0.386081326414E+03    0.79509E-03   -0.87392E-04181224   0.101E+00    0.589E-01
DAV:  60    -0.386081002472E+03    0.32394E-03   -0.76296E-04199752   0.837E-01    0.493E-01
DAV:  61    -0.386079993302E+03    0.10092E-02   -0.11106E-03167632   0.171E+00    0.642E-01
DAV:  62    -0.386080412659E+03   -0.41936E-03   -0.10162E-03207408   0.903E-01    0.490E-01
DAV:  63    -0.386080761185E+03   -0.34853E-03   -0.33754E-04185200   0.527E-01    0.350E-01
DAV:  64    -0.386080899646E+03   -0.13846E-03   -0.18700E-04158400   0.442E-01    0.288E-01
DAV:  65    -0.386081109449E+03   -0.20980E-03   -0.21091E-04161704   0.453E-01    0.168E-01
DAV:  66    -0.386081162598E+03   -0.53149E-04   -0.21560E-04141848   0.635E-01    0.132E-01
DAV:  67    -0.386081156446E+03    0.61523E-05   -0.17791E-04158832   0.373E-01    0.753E-02
DAV:  68    -0.386081158509E+03   -0.20630E-05   -0.70983E-05116792   0.210E-01
   1 F= -.38608116E+03 E0= -.38608102E+03  d E =-.286073E-03  mag=     2.0016
