       N       E                     dE             d eps       ncg     rms          rms(c)
DAV:   1     0.336167608667E+05    0.33617E+05   -0.22750E+05 40844   0.618E+03
DAV:   2     0.136688410242E+05   -0.19948E+05   -0.17954E+05 44016   0.241E+03
DAV:   3     0.433248054799E+04   -0.93364E+04   -0.87583E+04 51344   0.131E+03
DAV:   4     0.988108234698E+03   -0.33444E+04   -0.31045E+04 65412   0.111E+03
DAV:   5    -0.133997895322E+02   -0.10015E+04   -0.87147E+03 67848   0.753E+02    0.719E+02
DAV:   6    -0.282701484044E+03   -0.26930E+03   -0.31654E+03 69008   0.486E+02    0.353E+02
DAV:   7    -0.342803335147E+03   -0.60102E+02   -0.89650E+02 65204   0.310E+02    0.491E+01
DAV:   8    -0.380056896575E+03   -0.37254E+02   -0.31540E+02 64408   0.220E+02    0.256E+01
DAV:   9    -0.386045831685E+03   -0.59889E+01   -0.70692E+01 61496   0.926E+01    0.879E+00
DAV:  10    -0.387034159002E+03   -0.98833E+00   -0.11520E+01 66112   0.320E+01    0.415E+00
DAV:  11    -0.387170399184E+03   -0.13624E+00   -0.18018E+00 60128   0.154E+01    0.152E+00
DAV:  12    -0.387225335018E+03   -0.54936E-01   -0.51607E-01 64296   0.686E+00    0.139E+00
DAV:  13    -0.387232621407E+03   -0.72864E-02   -0.80640E-02 66088   0.276E+00    0.329E-01
DAV:  14    -0.387234161019E+03   -0.15396E-02   -0.19583E-02 64304   0.124E+00    0.258E-01
DAV:  15    -0.387234672787E+03   -0.51177E-03   -0.47336E-03 68152   0.451E-01    0.109E-01
DAV:  16    -0.387234842938E+03   -0.17015E-03   -0.12870E-03 64344   0.267E-01    0.302E-02
DAV:  17    -0.387234908179E+03   -0.65241E-04   -0.38271E-04 55952   0.142E-01    0.299E-02
DAV:  18    -0.387234927563E+03   -0.19384E-04   -0.12110E-04 32384   0.914E-02    0.137E-02
DAV:  19    -0.387234933641E+03   -0.60780E-05   -0.57095E-05 41616   0.509E-02    0.105E-02
DAV:  20    -0.387234937678E+03   -0.40371E-05   -0.18715E-05 27600   0.419E-02    0.466E-03
DAV:  21    -0.387234939990E+03   -0.23124E-05   -0.12505E-05 37168   0.274E-02    0.322E-03
DAV:  22    -0.387234941041E+03   -0.10505E-05   -0.33619E-06 26144   0.197E-02    0.223E-03
DAV:  23    -0.387234942406E+03   -0.13655E-05   -0.12148E-06 24272   0.143E-02    0.147E-03
DAV:  24    -0.387234942840E+03   -0.43368E-06   -0.61193E-07 22496   0.139E-02
   1 F= -.38723494E+03 E0= -.38723494E+03  d E =0.000000E+00  mag=    -0.0000
