       N       E                     dE             d eps       ncg     rms          rms(c)
DAV:   1     0.336167608667E+05    0.33617E+05   -0.22750E+05 40844   0.618E+03
DAV:   2     0.136688410242E+05   -0.19948E+05   -0.17954E+05 44016   0.241E+03
DAV:   3     0.433248054799E+04   -0.93364E+04   -0.87583E+04 51344   0.131E+03
DAV:   4     0.988108234698E+03   -0.33444E+04   -0.31045E+04 65412   0.111E+03
DAV:   5    -0.133997895322E+02   -0.10015E+04   -0.87147E+03 67848   0.753E+02    0.719E+02
DAV:   6    -0.282701484044E+03   -0.26930E+03   -0.31654E+03 69008   0.486E+02    0.353E+02
DAV:   7    -0.342803335147E+03   -0.60102E+02   -0.89650E+02 65204   0.310E+02    0.491E+01
DAV:   8    -0.380056896575E+03   -0.37254E+02   -0.31540E+02 64408   0.220E+02    0.256E+01
DAV:   9    -0.386045831685E+03   -0.59889E+01   -0.70692E+01 61496   0.926E+01    0.879E+00
DAV:  10    -0.387034159002E+03   -0.98833E+00   -0.11520E+01 66112   0.320E+01    0.415E+00
DAV:  11    -0.387170399184E+03   -0.13624E+00   -0.18018E+00 60128   0.154E+01    0.152E+00
DAV:  12    -0.387225335018E+03   -0.54936E-01   -0.51607E-01 64296   0.686E+00    0.139E+00
DAV:  13    -0.387232621407E+03   -0.72864E-02   -0.80640E-02 66088   0.276E+00    0.329E-01
DAV:  14    -0.387234161019E+03   -0.15396E-02   -0.19583E-02 64304   0.124E+00    0.258E-01
DAV:  15    -0.387234672667E+03   -0.51165E-03   -0.47324E-03 67816   0.451E-01    0.109E-01
DAV:  16    -0.387234841432E+03   -0.16876E-03   -0.12732E-03 56648   0.267E-01    0.303E-02
DAV:  17    -0.387234906164E+03   -0.64733E-04   -0.36456E-04 38200   0.150E-01    0.308E-02
DAV:  18    -0.387234926263E+03   -0.20098E-04   -0.12285E-04 28840   0.979E-02    0.143E-02
DAV:  19    -0.387234930803E+03   -0.45406E-05   -0.51451E-05 26896   0.581E-02
   1 F= -.38723493E+03 E0= -.38723493E+03  d E =0.000000E+00  mag=     0.0000
