       N       E                     dE             d eps       ncg     rms          rms(c)
DAV:   1     0.336164660937E+05    0.33616E+05   -0.22745E+05 12928   0.619E+03
DAV:   2     0.136860626337E+05   -0.19930E+05   -0.17938E+05 13912   0.242E+03
DAV:   3     0.436434387073E+04   -0.93217E+04   -0.87382E+04 16248   0.131E+03
DAV:   4     0.996067005152E+03   -0.33683E+04   -0.31264E+04 20680   0.111E+03
DAV:   5    -0.107620112861E+02   -0.10068E+04   -0.87724E+03 21432   0.756E+02    0.717E+02
DAV:   6    -0.281122628405E+03   -0.27036E+03   -0.31685E+03 21808   0.487E+02    0.353E+02
DAV:   7    -0.342171313200E+03   -0.61049E+02   -0.89982E+02 20560   0.309E+02    0.484E+01
DAV:   8    -0.379977737896E+03   -0.37806E+02   -0.31918E+02 20344   0.218E+02    0.256E+01
DAV:   9    -0.386057508477E+03   -0.60798E+01   -0.71380E+01 19456   0.917E+01    0.887E+00
DAV:  10    -0.387018906395E+03   -0.96140E+00   -0.11290E+01 20888   0.310E+01    0.408E+00
DAV:  11    -0.387159554430E+03   -0.14065E+00   -0.18045E+00 19040   0.144E+01    0.147E+00
DAV:  12    -0.387214006719E+03   -0.54452E-01   -0.48396E-01 20328   0.665E+00    0.138E+00
DAV:  13    -0.387221174868E+03   -0.71681E-02   -0.81236E-02 20776   0.281E+00    0.319E-01
DAV:  14    -0.387222822980E+03   -0.16481E-02   -0.19456E-02 20352   0.127E+00    0.246E-01
DAV:  15    -0.387223336577E+03   -0.51360E-03   -0.48250E-03 21528   0.446E-01    0.823E-02
DAV:  16    -0.387223513545E+03   -0.17697E-03   -0.12563E-03 21112   0.251E-01    0.259E-02
DAV:  17    -0.387223581195E+03   -0.67650E-04   -0.37887E-04 17888   0.131E-01    0.285E-02
DAV:  18    -0.387223598195E+03   -0.17000E-04   -0.12542E-04 10704   0.906E-02    0.121E-02
DAV:  19    -0.387223604998E+03   -0.68031E-05   -0.51894E-05 11552   0.503E-02    0.849E-03
DAV:  20    -0.387223609370E+03   -0.43718E-05   -0.19568E-05  8936   0.391E-02    0.438E-03
DAV:  21    -0.387223611873E+03   -0.25029E-05   -0.10876E-05 10656   0.258E-02    0.246E-03
DAV:  22    -0.387223612933E+03   -0.10605E-05   -0.33559E-06  8256   0.189E-02    0.146E-03
DAV:  23    -0.387223614146E+03   -0.12123E-05   -0.13402E-06  7848   0.130E-02    0.896E-04
DAV:  24    -0.387223614205E+03   -0.59779E-07   -0.56828E-07  7104   0.125E-02
   1 F= -.38722361E+03 E0= -.38722361E+03  d E =0.000000E+00  mag=     0.0000
