       N       E                     dE             d eps       ncg     rms          rms(c)
DAV:   1     0.336164660937E+05    0.33616E+05   -0.22745E+05 12928   0.619E+03
DAV:   2     0.136860626337E+05   -0.19930E+05   -0.17938E+05 13912   0.242E+03
DAV:   3     0.436434387073E+04   -0.93217E+04   -0.87382E+04 16248   0.131E+03
DAV:   4     0.996067005152E+03   -0.33683E+04   -0.31264E+04 20680   0.111E+03
DAV:   5    -0.107620112861E+02   -0.10068E+04   -0.87724E+03 21432   0.756E+02    0.717E+02
DAV:   6    -0.281122628405E+03   -0.27036E+03   -0.31685E+03 21808   0.487E+02    0.353E+02
DAV:   7    -0.342171313200E+03   -0.61049E+02   -0.89982E+02 20560   0.309E+02    0.484E+01
DAV:   8    -0.379977737896E+03   -0.37806E+02   -0.31918E+02 20344   0.218E+02    0.256E+01
DAV:   9    -0.386057508477E+03   -0.60798E+01   -0.71380E+01 19456   0.917E+01    0.887E+00
DAV:  10    -0.387018906395E+03   -0.96140E+00   -0.11290E+01 20888   0.310E+01    0.408E+00
DAV:  11    -0.387159554430E+03   -0.14065E+00   -0.18045E+00 19040   0.144E+01    0.147E+00
DAV:  12    -0.387214006719E+03   -0.54452E-01   -0.48396E-01 20328   0.665E+00    0.138E+00
DAV:  13    -0.387221174868E+03   -0.71681E-02   -0.81236E-02 20776   0.281E+00    0.319E-01
DAV:  14    -0.387222822980E+03   -0.16481E-02   -0.19456E-02 20352   0.127E+00    0.246E-01
DAV:  15    -0.387223336313E+03   -0.51333E-03   -0.48223E-03 21408   0.446E-01    0.823E-02
DAV:  16    -0.387223510104E+03   -0.17379E-03   -0.12243E-03 16872   0.251E-01    0.264E-02
DAV:  17    -0.387223579665E+03   -0.69561E-04   -0.38676E-04 12184   0.142E-01    0.295E-02
DAV:  18    -0.387223596555E+03   -0.16890E-04   -0.12608E-04  9144   0.100E-01    0.128E-02
DAV:  19    -0.387223602941E+03   -0.63860E-05   -0.53934E-05  8704   0.583E-02
   1 F= -.38722360E+03 E0= -.38722360E+03  d E =0.000000E+00  mag=     0.0000
