       N       E                     dE             d eps       ncg     rms          rms(c)
DAV:   1     0.336015179273E+05    0.33602E+05   -0.22763E+05 94832   0.618E+03
DAV:   2     0.136680042295E+05   -0.19934E+05   -0.17941E+05102128   0.241E+03
DAV:   3     0.434103681669E+04   -0.93270E+04   -0.87506E+04118904   0.131E+03
DAV:   4     0.989568992051E+03   -0.33515E+04   -0.31102E+04151344   0.111E+03
DAV:   5    -0.127636155415E+02   -0.10023E+04   -0.87229E+03157176   0.754E+02    0.719E+02
DAV:   6    -0.282296813070E+03   -0.26953E+03   -0.31684E+03159776   0.486E+02    0.353E+02
DAV:   7    -0.342771736719E+03   -0.60475E+02   -0.89913E+02150964   0.310E+02    0.491E+01
DAV:   8    -0.379983988357E+03   -0.37212E+02   -0.31365E+02148856   0.216E+02    0.250E+01
DAV:   9    -0.386096283152E+03   -0.61123E+01   -0.70770E+01143144   0.912E+01    0.882E+00
DAV:  10    -0.387036648819E+03   -0.94037E+00   -0.11036E+01152624   0.314E+01    0.408E+00
DAV:  11    -0.387174664973E+03   -0.13802E+00   -0.18013E+00139520   0.152E+01    0.151E+00
DAV:  12    -0.387226076608E+03   -0.51412E-01   -0.49345E-01148528   0.694E+00    0.139E+00
DAV:  13    -0.387233644940E+03   -0.75683E-02   -0.81322E-02152192   0.268E+00    0.353E-01
DAV:  14    -0.387235207507E+03   -0.15626E-02   -0.19581E-02149536   0.118E+00    0.256E-01
DAV:  15    -0.387235684779E+03   -0.47727E-03   -0.46793E-03159584   0.458E-01    0.106E-01
DAV:  16    -0.387235870049E+03   -0.18527E-03   -0.12246E-03146768   0.265E-01    0.265E-02
DAV:  17    -0.387235931866E+03   -0.61816E-04   -0.38614E-04131616   0.131E-01    0.294E-02
DAV:  18    -0.387235949414E+03   -0.17549E-04   -0.12327E-04 77672   0.899E-02    0.126E-02
DAV:  19    -0.387235955994E+03   -0.65795E-05   -0.52731E-05 86776   0.501E-02    0.102E-02
DAV:  20    -0.387235961225E+03   -0.52312E-05   -0.18998E-05 64936   0.428E-02    0.489E-03
DAV:  21    -0.387235963279E+03   -0.20540E-05   -0.95278E-06 69480   0.251E-02    0.272E-03
DAV:  22    -0.387235964820E+03   -0.15406E-05   -0.34873E-06 60512   0.202E-02    0.143E-03
DAV:  23    -0.387235965814E+03   -0.99497E-06   -0.14065E-06 56200   0.156E-02
   1 F= -.38723597E+03 E0= -.38723597E+03  d E =0.000000E+00  mag=     0.0000
